help: ## Autogenerated help for Makefile
	@grep -E '^[a-zA-Z_-]+:.*?## .*$$' $(MAKEFILE_LIST) | sort | awk 'BEGIN {FS = ":.*?## "}; {printf "\033[36m%-30s\033[0m %s\n", $$1, $$2}'

# Allows execute `make` without arguments to get a help
.DEFAULT_GOAL := help

# Forces GNUMake to run task any time it is been called.
.PHONY: *
